# vtk DataFile Version 3.0
ourMesh
ASCII
DATASET UNSTRUCTURED_GRID
POINTS 216 double
0.000000 0.000000 0.000000
1.000000 0.000000 0.000000
1.000000 1.000000 0.000000
0.000000 1.000000 0.000000
0.000000 0.000000 1.000000
1.000000 0.000000 1.000000
1.000000 1.000000 1.000000
0.000000 1.000000 1.000000
0.200000 0.000000 0.000000
0.400000 0.000000 0.000000
0.600000 0.000000 0.000000
0.800000 0.000000 0.000000
1.000000 0.200000 0.000000
1.000000 0.400000 0.000000
1.000000 0.600000 0.000000
1.000000 0.800000 0.000000
0.800000 1.000000 0.000000
0.600000 1.000000 0.000000
0.400000 1.000000 0.000000
0.200000 1.000000 0.000000
0.000000 0.800000 0.000000
0.000000 0.600000 0.000000
0.000000 0.400000 0.000000
0.000000 0.200000 0.000000
0.200000 0.000000 1.000000
0.400000 0.000000 1.000000
0.600000 0.000000 1.000000
0.800000 0.000000 1.000000
1.000000 0.200000 1.000000
1.000000 0.400000 1.000000
1.000000 0.600000 1.000000
1.000000 0.800000 1.000000
0.800000 1.000000 1.000000
0.600000 1.000000 1.000000
0.400000 1.000000 1.000000
0.200000 1.000000 1.000000
0.000000 0.800000 1.000000
0.000000 0.600000 1.000000
0.000000 0.400000 1.000000
0.000000 0.200000 1.000000
0.000000 0.000000 0.200000
0.000000 0.000000 0.400000
0.000000 0.000000 0.600000
0.000000 0.000000 0.800000
1.000000 0.000000 0.200000
1.000000 0.000000 0.400000
1.000000 0.000000 0.600000
1.000000 0.000000 0.800000
1.000000 1.000000 0.200000
1.000000 1.000000 0.400000
1.000000 1.000000 0.600000
1.000000 1.000000 0.800000
0.000000 1.000000 0.200000
0.000000 1.000000 0.400000
0.000000 1.000000 0.600000
0.000000 1.000000 0.800000
0.200000 0.200000 0.000000
0.200000 0.400000 0.000000
0.200000 0.600000 0.000000
0.200000 0.800000 0.000000
0.400000 0.200000 0.000000
0.400000 0.400000 0.000000
0.400000 0.600000 0.000000
0.400000 0.800000 0.000000
0.600000 0.200000 0.000000
0.600000 0.400000 0.000000
0.600000 0.600000 0.000000
0.600000 0.800000 0.000000
0.800000 0.200000 0.000000
0.800000 0.400000 0.000000
0.800000 0.600000 0.000000
0.800000 0.800000 0.000000
0.200000 0.000000 0.200000
0.200000 0.000000 0.400000
0.200000 0.000000 0.600000
0.200000 0.000000 0.800000
0.400000 0.000000 0.200000
0.400000 0.000000 0.400000
0.400000 0.000000 0.600000
0.400000 0.000000 0.800000
0.600000 0.000000 0.200000
0.600000 0.000000 0.400000
0.600000 0.000000 0.600000
0.600000 0.000000 0.800000
0.800000 0.000000 0.200000
0.800000 0.000000 0.400000
0.800000 0.000000 0.600000
0.800000 0.000000 0.800000
1.000000 0.200000 0.200000
1.000000 0.200000 0.400000
1.000000 0.200000 0.600000
1.000000 0.200000 0.800000
1.000000 0.400000 0.200000
1.000000 0.400000 0.400000
1.000000 0.400000 0.600000
1.000000 0.400000 0.800000
1.000000 0.600000 0.200000
1.000000 0.600000 0.400000
1.000000 0.600000 0.600000
1.000000 0.600000 0.800000
1.000000 0.800000 0.200000
1.000000 0.800000 0.400000
1.000000 0.800000 0.600000
1.000000 0.800000 0.800000
0.800000 1.000000 0.200000
0.800000 1.000000 0.400000
0.800000 1.000000 0.600000
0.800000 1.000000 0.800000
0.600000 1.000000 0.200000
0.600000 1.000000 0.400000
0.600000 1.000000 0.600000
0.600000 1.000000 0.800000
0.400000 1.000000 0.200000
0.400000 1.000000 0.400000
0.400000 1.000000 0.600000
0.400000 1.000000 0.800000
0.200000 1.000000 0.200000
0.200000 1.000000 0.400000
0.200000 1.000000 0.600000
0.200000 1.000000 0.800000
0.000000 0.800000 0.200000
0.000000 0.800000 0.400000
0.000000 0.800000 0.600000
0.000000 0.800000 0.800000
0.000000 0.600000 0.200000
0.000000 0.600000 0.400000
0.000000 0.600000 0.600000
0.000000 0.600000 0.800000
0.000000 0.400000 0.200000
0.000000 0.400000 0.400000
0.000000 0.400000 0.600000
0.000000 0.400000 0.800000
0.000000 0.200000 0.200000
0.000000 0.200000 0.400000
0.000000 0.200000 0.600000
0.000000 0.200000 0.800000
0.200000 0.200000 1.000000
0.200000 0.400000 1.000000
0.200000 0.600000 1.000000
0.200000 0.800000 1.000000
0.400000 0.200000 1.000000
0.400000 0.400000 1.000000
0.400000 0.600000 1.000000
0.400000 0.800000 1.000000
0.600000 0.200000 1.000000
0.600000 0.400000 1.000000
0.600000 0.600000 1.000000
0.600000 0.800000 1.000000
0.800000 0.200000 1.000000
0.800000 0.400000 1.000000
0.800000 0.600000 1.000000
0.800000 0.800000 1.000000
0.200000 0.200000 0.200000
0.200000 0.200000 0.400000
0.200000 0.200000 0.600000
0.200000 0.200000 0.800000
0.200000 0.400000 0.200000
0.200000 0.400000 0.400000
0.200000 0.400000 0.600000
0.200000 0.400000 0.800000
0.200000 0.600000 0.200000
0.200000 0.600000 0.400000
0.200000 0.600000 0.600000
0.200000 0.600000 0.800000
0.200000 0.800000 0.200000
0.200000 0.800000 0.400000
0.200000 0.800000 0.600000
0.200000 0.800000 0.800000
0.400000 0.200000 0.200000
0.400000 0.200000 0.400000
0.400000 0.200000 0.600000
0.400000 0.200000 0.800000
0.400000 0.400000 0.200000
0.400000 0.400000 0.400000
0.400000 0.400000 0.600000
0.400000 0.400000 0.800000
0.400000 0.600000 0.200000
0.400000 0.600000 0.400000
0.400000 0.600000 0.600000
0.400000 0.600000 0.800000
0.400000 0.800000 0.200000
0.400000 0.800000 0.400000
0.400000 0.800000 0.600000
0.400000 0.800000 0.800000
0.600000 0.200000 0.200000
0.600000 0.200000 0.400000
0.600000 0.200000 0.600000
0.600000 0.200000 0.800000
0.600000 0.400000 0.200000
0.600000 0.400000 0.400000
0.600000 0.400000 0.600000
0.600000 0.400000 0.800000
0.600000 0.600000 0.200000
0.600000 0.600000 0.400000
0.600000 0.600000 0.600000
0.600000 0.600000 0.800000
0.600000 0.800000 0.200000
0.600000 0.800000 0.400000
0.600000 0.800000 0.600000
0.600000 0.800000 0.800000
0.800000 0.200000 0.200000
0.800000 0.200000 0.400000
0.800000 0.200000 0.600000
0.800000 0.200000 0.800000
0.800000 0.400000 0.200000
0.800000 0.400000 0.400000
0.800000 0.400000 0.600000
0.800000 0.400000 0.800000
0.800000 0.600000 0.200000
0.800000 0.600000 0.400000
0.800000 0.600000 0.600000
0.800000 0.600000 0.800000
0.800000 0.800000 0.200000
0.800000 0.800000 0.400000
0.800000 0.800000 0.600000
0.800000 0.800000 0.800000
CELLS 125 1125
8 0 8 56 23 40 72 152 132
8 40 72 152 132 41 73 153 133
8 41 73 153 133 42 74 154 134
8 42 74 154 134 43 75 155 135
8 43 75 155 135 4 24 136 39
8 23 56 57 22 132 152 156 128
8 132 152 156 128 133 153 157 129
8 133 153 157 129 134 154 158 130
8 134 154 158 130 135 155 159 131
8 135 155 159 131 39 136 137 38
8 22 57 58 21 128 156 160 124
8 128 156 160 124 129 157 161 125
8 129 157 161 125 130 158 162 126
8 130 158 162 126 131 159 163 127
8 131 159 163 127 38 137 138 37
8 21 58 59 20 124 160 164 120
8 124 160 164 120 125 161 165 121
8 125 161 165 121 126 162 166 122
8 126 162 166 122 127 163 167 123
8 127 163 167 123 37 138 139 36
8 20 59 19 3 120 164 116 52
8 120 164 116 52 121 165 117 53
8 121 165 117 53 122 166 118 54
8 122 166 118 54 123 167 119 55
8 123 167 119 55 36 139 35 7
8 8 9 60 56 72 76 168 152
8 72 76 168 152 73 77 169 153
8 73 77 169 153 74 78 170 154
8 74 78 170 154 75 79 171 155
8 75 79 171 155 24 25 140 136
8 56 60 61 57 152 168 172 156
8 152 168 172 156 153 169 173 157
8 153 169 173 157 154 170 174 158
8 154 170 174 158 155 171 175 159
8 155 171 175 159 136 140 141 137
8 57 61 62 58 156 172 176 160
8 156 172 176 160 157 173 177 161
8 157 173 177 161 158 174 178 162
8 158 174 178 162 159 175 179 163
8 159 175 179 163 137 141 142 138
8 58 62 63 59 160 176 180 164
8 160 176 180 164 161 177 181 165
8 161 177 181 165 162 178 182 166
8 162 178 182 166 163 179 183 167
8 163 179 183 167 138 142 143 139
8 59 63 18 19 164 180 112 116
8 164 180 112 116 165 181 113 117
8 165 181 113 117 166 182 114 118
8 166 182 114 118 167 183 115 119
8 167 183 115 119 139 143 34 35
8 9 10 64 60 76 80 184 168
8 76 80 184 168 77 81 185 169
8 77 81 185 169 78 82 186 170
8 78 82 186 170 79 83 187 171
8 79 83 187 171 25 26 144 140
8 60 64 65 61 168 184 188 172
8 168 184 188 172 169 185 189 173
8 169 185 189 173 170 186 190 174
8 170 186 190 174 171 187 191 175
8 171 187 191 175 140 144 145 141
8 61 65 66 62 172 188 192 176
8 172 188 192 176 173 189 193 177
8 173 189 193 177 174 190 194 178
8 174 190 194 178 175 191 195 179
8 175 191 195 179 141 145 146 142
8 62 66 67 63 176 192 196 180
8 176 192 196 180 177 193 197 181
8 177 193 197 181 178 194 198 182
8 178 194 198 182 179 195 199 183
8 179 195 199 183 142 146 147 143
8 63 67 17 18 180 196 108 112
8 180 196 108 112 181 197 109 113
8 181 197 109 113 182 198 110 114
8 182 198 110 114 183 199 111 115
8 183 199 111 115 143 147 33 34
8 10 11 68 64 80 84 200 184
8 80 84 200 184 81 85 201 185
8 81 85 201 185 82 86 202 186
8 82 86 202 186 83 87 203 187
8 83 87 203 187 26 27 148 144
8 64 68 69 65 184 200 204 188
8 184 200 204 188 185 201 205 189
8 185 201 205 189 186 202 206 190
8 186 202 206 190 187 203 207 191
8 187 203 207 191 144 148 149 145
8 65 69 70 66 188 204 208 192
8 188 204 208 192 189 205 209 193
8 189 205 209 193 190 206 210 194
8 190 206 210 194 191 207 211 195
8 191 207 211 195 145 149 150 146
8 66 70 71 67 192 208 212 196
8 192 208 212 196 193 209 213 197
8 193 209 213 197 194 210 214 198
8 194 210 214 198 195 211 215 199
8 195 211 215 199 146 150 151 147
8 67 71 16 17 196 212 104 108
8 196 212 104 108 197 213 105 109
8 197 213 105 109 198 214 106 110
8 198 214 106 110 199 215 107 111
8 199 215 107 111 147 151 32 33
8 11 1 12 68 84 44 88 200
8 84 44 88 200 85 45 89 201
8 85 45 89 201 86 46 90 202
8 86 46 90 202 87 47 91 203
8 87 47 91 203 27 5 28 148
8 68 12 13 69 200 88 92 204
8 200 88 92 204 201 89 93 205
8 201 89 93 205 202 90 94 206
8 202 90 94 206 203 91 95 207
8 203 91 95 207 148 28 29 149
8 69 13 14 70 204 92 96 208
8 204 92 96 208 205 93 97 209
8 205 93 97 209 206 94 98 210
8 206 94 98 210 207 95 99 211
8 207 95 99 211 149 29 30 150
8 70 14 15 71 208 96 100 212
8 208 96 100 212 209 97 101 213
8 209 97 101 213 210 98 102 214
8 210 98 102 214 211 99 103 215
8 211 99 103 215 150 30 31 151
8 71 15 2 16 212 100 48 104
8 212 100 48 104 213 101 49 105
8 213 101 49 105 214 102 50 106
8 214 102 50 106 215 103 51 107
8 215 103 51 107 151 31 6 32
CELL_TYPES 125
12
12
12
12
12
12
12
12
12
12
12
12
12
12
12
12
12
12
12
12
12
12
12
12
12
12
12
12
12
12
12
12
12
12
12
12
12
12
12
12
12
12
12
12
12
12
12
12
12
12
12
12
12
12
12
12
12
12
12
12
12
12
12
12
12
12
12
12
12
12
12
12
12
12
12
12
12
12
12
12
12
12
12
12
12
12
12
12
12
12
12
12
12
12
12
12
12
12
12
12
12
12
12
12
12
12
12
12
12
12
12
12
12
12
12
12
12
12
12
12
12
12
12
12
12
CELL_DATA 125
SCALARS P double 1
LOOKUP_TABLE default
0.073114
0.488751
0.473900
0.477744
0.821717
0.708658
1.016451
1.004894
1.008150
1.260292
0.702380
1.011277
0.999680
1.002940
1.255378
0.702588
1.010311
0.998768
1.002015
1.253465
1.179965
1.403122
1.394478
1.397035
1.576180
0.083968
0.494339
0.479708
0.483495
0.823515
0.711731
1.016232
1.004828
1.008039
1.257651
0.705542
1.011128
0.999685
1.002899
1.252808
0.705738
1.010175
0.998785
1.001985
1.250932
1.178128
1.399104
1.390575
1.393094
1.570711
0.083927
0.494310
0.479678
0.483464
0.823504
0.711713
1.016233
1.004828
1.008039
1.257670
0.705524
1.011129
0.999685
1.002899
1.252827
0.705720
1.010176
0.998785
1.001986
1.250949
1.178140
1.399134
1.390604
1.393123
1.570752
0.083969
0.494340
0.479708
0.483495
0.823516
0.711731
1.016232
1.004828
1.008039
1.257651
0.705542
1.011128
0.999685
1.002899
1.252808
0.705739
1.010175
0.998785
1.001985
1.250931
1.178127
1.399104
1.390575
1.393094
1.570710
0.094685
0.499865
0.485450
0.489180
0.825297
0.714773
1.016014
1.004763
1.007928
1.255032
0.708673
1.010979
0.999689
1.002858
1.250260
0.708857
1.010040
0.998801
1.001956
1.248418
1.176305
1.395116
1.386701
1.389184
1.565272
CELL_DATA 125
VECTORS vectors double 
-0.000042 -0.706444 2.997277
-0.000019 -0.414300 3.000135
-0.000020 -0.425356 2.999967
-0.000020 -0.422483 2.997594
-0.000006 -0.152082 3.000062
-0.000010 -0.245096 2.997853
0.000001 0.014720 3.000111
0.000000 0.004337 2.999970
0.000000 0.007287 2.998112
0.000007 0.247708 3.000052
-0.000010 -0.250077 2.997846
0.000000 0.010125 3.000112
-0.000000 -0.000271 2.999970
0.000000 0.002676 2.998108
0.000007 0.242814 3.000052
-0.000010 -0.249354 2.997848
0.000000 0.011673 3.000112
-0.000000 0.001245 2.999970
0.000000 0.004202 2.998110
0.000007 0.244955 3.000052
0.000005 0.167743 2.998307
0.000011 0.399941 3.000091
0.000011 0.390302 2.999974
0.000011 0.393186 2.998533
0.000015 0.606412 3.000044
0.000000 -0.699189 2.997316
0.000000 -0.410128 3.000133
0.000000 -0.421039 2.999968
0.000000 -0.418204 2.997628
0.000000 -0.150599 3.000061
0.000000 -0.242646 2.997882
-0.000000 0.014523 3.000110
-0.000000 0.004279 2.999970
-0.000000 0.007187 2.998137
-0.000000 0.245011 3.000051
0.000000 -0.247562 2.997875
-0.000000 0.009991 3.000110
-0.000000 -0.000267 2.999970
-0.000000 0.002638 2.998133
-0.000000 0.240195 3.000051
0.000000 -0.246844 2.997877
-0.000000 0.011511 3.000110
0.000000 0.001223 2.999970
0.000000 0.004138 2.998136
-0.000000 0.242289 3.000051
-0.000000 0.165947 2.998330
-0.000000 0.395447 3.000090
-0.000000 0.385962 2.999974
-0.000000 0.388797 2.998553
-0.000000 0.599392 3.000043
-0.000000 -0.699217 2.997316
-0.000000 -0.410150 3.000133
-0.000000 -0.421062 2.999968
-0.000000 -0.418227 2.997628
-0.000000 -0.150608 3.000061
-0.000000 -0.242661 2.997882
0.000000 0.014524 3.000110
0.000000 0.004280 2.999970
0.000000 0.007188 2.998137
0.000000 0.245030 3.000051
-0.000000 -0.247576 2.997875
0.000000 0.009991 3.000110
-0.000000 -0.000267 2.999970
0.000000 0.002638 2.998133
0.000000 0.240214 3.000051
-0.000000 -0.246859 2.997877
0.000000 0.011512 3.000110
0.000000 0.001223 2.999970
0.000000 0.004138 2.998135
0.000000 0.242308 3.000051
0.000000 0.165960 2.998330
0.000000 0.395480 3.000090
0.000000 0.385994 2.999974
0.000000 0.388829 2.998553
0.000000 0.599446 3.000043
-0.000048 -0.699189 2.997316
-0.000025 -0.410128 3.000133
-0.000026 -0.421039 2.999968
-0.000026 -0.418204 2.997628
-0.000008 -0.150599 3.000061
-0.000014 -0.242646 2.997882
0.000001 0.014523 3.000110
0.000000 0.004279 2.999970
0.000001 0.007187 2.998137
0.000013 0.245011 3.000051
-0.000015 -0.247562 2.997875
0.000001 0.009991 3.000110
-0.000000 -0.000267 2.999970
0.000000 0.002638 2.998133
0.000012 0.240195 3.000051
-0.000015 -0.246844 2.997877
0.000001 0.011511 3.000110
0.000000 0.001223 2.999970
0.000000 0.004138 2.998136
0.000012 0.242289 3.000051
0.000009 0.165947 2.998330
0.000020 0.395447 3.000090
0.000019 0.385962 2.999974
0.000019 0.388797 2.998553
0.000028 0.599393 3.000043
-0.000007 -0.692017 2.997356
-0.000006 -0.406007 3.000131
-0.000006 -0.416775 2.999968
-0.000006 -0.413977 2.997661
-0.000003 -0.149134 3.000060
-0.000004 -0.240227 2.997911
0.000001 0.014328 3.000108
0.000000 0.004222 2.999971
0.000000 0.007088 2.998162
0.000005 0.242357 3.000050
-0.000004 -0.245078 2.997904
0.000000 0.009858 3.000108
-0.000000 -0.000263 2.999971
0.000000 0.002601 2.998158
0.000005 0.237618 3.000050
-0.000004 -0.244365 2.997906
0.000000 0.011352 3.000108
0.000000 0.001202 2.999971
0.000000 0.004075 2.998161
0.000005 0.239667 3.000050
0.000004 0.164179 2.998353
0.000009 0.391030 3.000088
0.000008 0.381697 2.999975
0.000008 0.384483 2.998574
0.000012 0.592504 3.000042
